# vtk DataFile Version 3.0
vtk output
ASCII
DATASET UNSTRUCTURED_GRID
POINTS 1627 double
0 0.233662 0
0.0215437 0.257853 0
0 0.265499 0
0 0.233662 0
0.330773 0.00319287 0
0.366282 0.0203893 0
0.363875 0.043331 0
0.345189 0.0569736 0
0.330773 0.00319287 0
0.034709 0.257042 0
0.0720063 0.200293 0
0.0742566 0.198653 0
0.0973087 0.197214 0
0.135192 0.302761 0
0.133376 0.306375 0
0.0473047 0.268039 0
0.034709 0.257042 0
0.228839 0.0817511 0
0.234975 0.0780798 0
0.258232 0.125453 0
0.21563 0.109063 0
0.228839 0.0817511 0
0.106687 0.0988706 0
0.151028 0.0904664 0
0.165808 0.105936 0
0.125933 0.189415 0
0.115594 0.188492 0
0.0743932 0.155455 0
0.106687 0.0988706 0
0.125933 0.189415 0
0.165808 0.105936 0
0.195163 0.118583 0
0.169936 0.192763 0
0.138529 0.193641 0
0.125933 0.189415 0
0.234975 0.0780798 0
0.261026 0.0178011 0
0.292703 0.0188756 0
0.342252 0.0596596 0
0.33116 0.138155 0
0.306134 0.155765 0
0.297369 0.157491 0
0.258232 0.125453 0
0.234975 0.0780798 0
0.310719 0.209147 0
0.321848 0.192631 0
0.348585 0.205987 0
0.328361 0.225817 0
0.314086 0.220797 0
0.310719 0.209147 0
0.366282 0.0203893 0
0.389626 0.00321459 0
0.404702 0.0155492 0
0.375832 0.0401498 0
0.363875 0.043331 0
0.366282 0.0203893 0
0.169936 0.192763 0
0.195163 0.118583 0
0.21563 0.109063 0
0.258232 0.125453 0
0.297369 0.157491 0
0.289916 0.180526 0
0.209996 0.218538 0
0.182462 0.204288 0
0.169936 0.192763 0
0.389626 0.00321459 0
0.389101 0 0
0.459275 0 0
0.459039 0.00491483 0
0.450846 0.0100824 0
0.404702 0.0155492 0
0.389626 0.00321459 0
0 0.469312 0
0.0110885 0.472002 0
0.00245673 0.493904 0
0 0.494997 0
0 0.469312 0
0.375832 0.0401498 0
0.404702 0.0155492 0
0.450846 0.0100824 0
0.411105 0.0824566 0
0.375832 0.0401498 0
0.415875 0.191609 0
0.518294 0.188797 0
0.526987 0.194113 0
0.537911 0.229909 0
0.425883 0.252138 0
0.415875 0.191609 0
0.0973087 0.197214 0
0.115594 0.188492 0
0.125933 0.189415 0
0.138529 0.193641 0
0.168207 0.263714 0
0.135192 0.302761 0
0.0973087 0.197214 0
0.33116 0.138155 0
0.342252 0.0596596 0
0.345189 0.0569736 0
0.363875 0.043331 0
0.375832 0.0401498 0
0.411105 0.0824566 0
0.394533 0.167098 0
0.33116 0.138155 0
0.138529 0.193641 0
0.169936 0.192763 0
0.182462 0.204288 0
0.172645 0.261951 0
0.168207 0.263714 0
0.138529 0.193641 0
0.0953742 0.34525 0
0.135225 0.318766 0
0.199144 0.358069 0
0.188913 0.368909 0
0.142527 0.415999 0
0.0706015 0.411623 0
0.0953742 0.34525 0
0.172645 0.261951 0
0.182462 0.204288 0
0.209996 0.218538 0
0.214626 0.25024 0
0.200516 0.260402 0
0.172645 0.261951 0
0.411105 0.0824566 0
0.450846 0.0100824 0
0.459039 0.00491483 0
0.488953 0.0296077 0
0.49282 0.0354216 0
0.518294 0.188797 0
0.415875 0.191609 0
0.403283 0.184428 0
0.394533 0.167098 0
0.411105 0.0824566 0
0.328361 0.225817 0
0.348585 0.205987 0
0.403283 0.184428 0
0.415875 0.191609 0
0.425883 0.252138 0
0.399673 0.31362 0
0.368103 0.307296 0
0.328361 0.225817 0
0.246511 0 0
0.316306 0 0
0.292703 0.0188756 0
0.261026 0.0178011 0
0.246511 0 0
0.273953 0.430946 0
0.273927 0.428483 0
0.345751 0.431915 0
0.34823 0.435163 0
0.338009 0.492104 0
0.333101 0.501227 0
0.276864 0.501281 0
0.273953 0.430946 0
0.289916 0.180526 0
0.297369 0.157491 0
0.306134 0.155765 0
0.321848 0.192631 0
0.310719 0.209147 0
0.289916 0.180526 0
0.292703 0.0188756 0
0.316306 0 0
0.326811 0 0
0.330773 0.00319287 0
0.345189 0.0569736 0
0.342252 0.0596596 0
0.292703 0.0188756 0
0.0599051 0.429238 0
0.0706015 0.411623 0
0.142527 0.415999 0
0.0980218 0.46999 0
0.0742601 0.472141 0
0.0718312 0.470115 0
0.0599051 0.429238 0
0.326811 0 0
0.389101 0 0
0.389626 0.00321459 0
0.366282 0.0203893 0
0.330773 0.00319287 0
0.326811 0 0
0.351396 0.353977 0
0.392449 0.345325 0
0.410643 0.436539 0
0.365794 0.439601 0
0.34823 0.435163 0
0.345751 0.431915 0
0.351396 0.353977 0
0 0.265499 0
0.0215437 0.257853 0
0.034709 0.257042 0
0.0473047 0.268039 0
0.0767331 0.348506 0
0.0247493 0.398844 0
0.0146728 0.396944 0
0 0.3923 0
0 0.265499 0
0.306134 0.155765 0
0.33116 0.138155 0
0.394533 0.167098 0
0.403283 0.184428 0
0.348585 0.205987 0
0.321848 0.192631 0
0.306134 0.155765 0
0.450764 0.446267 0
0.478573 0.397218 0
0.488739 0.411099 0
0.462277 0.449876 0
0.450764 0.446267 0
0.209996 0.218538 0
0.289916 0.180526 0
0.310719 0.209147 0
0.314086 0.220797 0
0.254493 0.25939 0
0.214626 0.25024 0
0.209996 0.218538 0
0.0980218 0.46999 0
0.142527 0.415999 0
0.188913 0.368909 0
0.229112 0.511199 0
0.219782 0.542929 0
0.215546 0.544684 0
0.0980218 0.46999 0
0.579596 0 0
0.623426 0 0
0.634551 0.0191739 0
0.622555 0.0655865 0
0.58259 0.0448399 0
0.579596 0 0
0.133376 0.306375 0
0.135225 0.318766 0
0.0953742 0.34525 0
0.0767331 0.348506 0
0.0473047 0.268039 0
0.133376 0.306375 0
0.0247493 0.398844 0
0.0767331 0.348506 0
0.0953742 0.34525 0
0.0706015 0.411623 0
0.0599051 0.429238 0
0.0252964 0.400183 0
0.0247493 0.398844 0
0.392449 0.345325 0
0.406887 0.329615 0
0.475838 0.355664 0
0.478573 0.397218 0
0.450764 0.446267 0
0.428749 0.448464 0
0.410643 0.436539 0
0.392449 0.345325 0
0 0.415905 0
0.0138015 0.409983 0
0.0149694 0.409928 0
0.0179124 0.470082 0
0.0110885 0.472002 0
0 0.469312 0
0 0.415905 0
0.623426 0 0
0.665333 0 0
0.664679 0.00817555 0
0.634551 0.0191739 0
0.623426 0 0
0.0138015 0.409983 0
0.0146728 0.396944 0
0.0247493 0.398844 0
0.0252964 0.400183 0
0.0149694 0.409928 0
0.0138015 0.409983 0
0.34823 0.435163 0
0.365794 0.439601 0
0.389906 0.490729 0
0.338009 0.492104 0
0.34823 0.435163 0
0.133376 0.306375 0
0.135192 0.302761 0
0.168207 0.263714 0
0.172645 0.261951 0
0.200516 0.260402 0
0.201312 0.358008 0
0.199144 0.358069 0
0.135225 0.318766 0
0.133376 0.306375 0
0.229112 0.511199 0
0.273953 0.430946 0
0.276864 0.501281 0
0.254629 0.531751 0
0.219782 0.542929 0
0.229112 0.511199 0
0.0149694 0.409928 0
0.0252964 0.400183 0
0.0599051 0.429238 0
0.0718312 0.470115 0
0.0179124 0.470082 0
0.0149694 0.409928 0
0 0.3923 0
0.0146728 0.396944 0
0.0138015 0.409983 0
0 0.415905 0
0 0.3923 0
0.365794 0.439601 0
0.410643 0.436539 0
0.428749 0.448464 0
0.398774 0.49659 0
0.389906 0.490729 0
0.365794 0.439601 0
0.399673 0.31362 0
0.425883 0.252138 0
0.537911 0.229909 0
0.560398 0.25471 0
0.527287 0.339817 0
0.475838 0.355664 0
0.406887 0.329615 0
0.399673 0.31362 0
0.338009 0.492104 0
0.389906 0.490729 0
0.398774 0.49659 0
0.398296 0.508739 0
0.355909 0.530611 0
0.350108 0.53015 0
0.333101 0.501227 0
0.338009 0.492104 0
0.49282 0.0354216 0
0.512253 0.0354712 0
0.58259 0.0448399 0
0.622555 0.0655865 0
0.624933 0.0694923 0
0.618357 0.146387 0
0.613102 0.164851 0
0.589671 0.183009 0
0.526987 0.194113 0
0.518294 0.188797 0
0.49282 0.0354216 0
0.188913 0.368909 0
0.199144 0.358069 0
0.201312 0.358008 0
0.230496 0.364899 0
0.273927 0.428483 0
0.273953 0.430946 0
0.229112 0.511199 0
0.188913 0.368909 0
0.596872 0.243413 0
0.638077 0.22707 0
0.595144 0.248759 0
0.596872 0.243413 0
0.339213 0.342563 0
0.368103 0.307296 0
0.399673 0.31362 0
0.406887 0.329615 0
0.392449 0.345325 0
0.351396 0.353977 0
0.339213 0.342563 0
0.398774 0.49659 0
0.428749 0.448464 0
0.450764 0.446267 0
0.462277 0.449876 0
0.483061 0.467903 0
0.476787 0.527125 0
0.436736 0.541957 0
0.398296 0.508739 0
0.398774 0.49659 0
0.970883 0.0855939 0
1 0.0620369 0
1 0.0874759 0
0.970883 0.0855939 0
0.624933 0.0694923 0
0.667858 0.0806573 0
0.618357 0.146387 0
0.624933 0.0694923 0
0.459275 0 0
0.524882 0 0
0.49431 0.0287314 0
0.488953 0.0296077 0
0.459039 0.00491483 0
0.459275 0 0
0.618357 0.146387 0
0.667858 0.0806573 0
0.683911 0.0777088 0
0.69577 0.0815672 0
0.704893 0.0943529 0
0.711575 0.137574 0
0.638341 0.175492 0
0.613102 0.164851 0
0.618357 0.146387 0
0.271199 0.341726 0
0.339213 0.342563 0
0.351396 0.353977 0
0.345751 0.431915 0
0.273927 0.428483 0
0.230496 0.364899 0
0.271199 0.341726 0
0.254493 0.25939 0
0.314086 0.220797 0
0.328361 0.225817 0
0.368103 0.307296 0
0.339213 0.342563 0
0.271199 0.341726 0
0.254493 0.25939 0
0.49431 0.0287314 0
0.524882 0 0
0.579596 0 0
0.58259 0.0448399 0
0.512253 0.0354712 0
0.49431 0.0287314 0
0.49282 0.0354216 0
0.488953 0.0296077 0
0.49431 0.0287314 0
0.512253 0.0354712 0
0.49282 0.0354216 0
0.727335 0.141205 0
0.745143 0.115963 0
0.788962 0.0954501 0
0.833444 0.12675 0
0.846092 0.163792 0
0.842922 0.185269 0
0.803023 0.226098 0
0.74064 0.18766 0
0.727335 0.141205 0
0.686557 0.0416181 0
0.664679 0.00817555 0
0.665333 0 0
0.733614 0 0
0.75297 0.0155964 0
0.752437 0.022457 0
0.714724 0.0475302 0
0.686557 0.0416181 0
0.704893 0.0943529 0
0.745143 0.115963 0
0.727335 0.141205 0
0.711575 0.137574 0
0.704893 0.0943529 0
0.733614 0 0
0.756487 0 0
0.75297 0.0155964 0
0.733614 0 0
0.846092 0.163792 0
0.872934 0.181018 0
0.842922 0.185269 0
0.846092 0.163792 0
0.686557 0.0416181 0
0.714724 0.0475302 0
0.69577 0.0815672 0
0.683911 0.0777088 0
0.686557 0.0416181 0
0.200516 0.260402 0
0.214626 0.25024 0
0.254493 0.25939 0
0.271199 0.341726 0
0.230496 0.364899 0
0.201312 0.358008 0
0.200516 0.260402 0
0.634551 0.0191739 0
0.664679 0.00817555 0
0.686557 0.0416181 0
0.683911 0.0777088 0
0.667858 0.0806573 0
0.624933 0.0694923 0
0.622555 0.0655865 0
0.634551 0.0191739 0
0.638341 0.175492 0
0.711575 0.137574 0
0.727335 0.141205 0
0.74064 0.18766 0
0.690583 0.238967 0
0.64061 0.225885 0
0.638341 0.175492 0
0.714724 0.0475302 0
0.752437 0.022457 0
0.791532 0.0790625 0
0.788962 0.0954501 0
0.745143 0.115963 0
0.704893 0.0943529 0
0.69577 0.0815672 0
0.714724 0.0475302 0
0.833444 0.12675 0
0.871593 0.115983 0
0.901612 0.144882 0
0.87961 0.182134 0
0.872934 0.181018 0
0.846092 0.163792 0
0.833444 0.12675 0
0.957222 0.188191 0
0.97808 0.205751 0
0.973617 0.215035 0
0.943946 0.21675 0
0.943373 0.215845 0
0.957222 0.188191 0
0.713089 0.272862 0
0.690583 0.238967 0
0.74064 0.18766 0
0.803023 0.226098 0
0.808974 0.277821 0
0.771956 0.282512 0
0.713089 0.272862 0
0.842922 0.185269 0
0.872934 0.181018 0
0.87961 0.182134 0
0.902925 0.210559 0
0.903769 0.266586 0
0.890381 0.291468 0
0.860547 0.305997 0
0.808974 0.277821 0
0.803023 0.226098 0
0.842922 0.185269 0
0.560398 0.25471 0
0.537911 0.229909 0
0.526987 0.194113 0
0.589671 0.183009 0
[...]
CELL_DATA 243
FIELD FieldData 6
weight 1 243 float
 -0.0187621 -0.0244676 -0.0206606 -0.0203775 -0.0165815 -0.0176543 -0.0218732 -0.0282447 -0.026579 -0.0206566 -0.0285998 -0.0391125 -0.0294839 -0.0396213 -0.0207935 -0.0281436 -0.0212167 -0.0309006 -0.022292 -0.0346281 -0.0334919 -0.0217447 -0.0434156 -0.0262025 -0.0238824 -0.031736 -0.0251493 -0.04367 -0.0242891 -0.0280191 -0.0523051 -0.0246148 -0.0381971 -0.0465361 -0.0238814 -0.0289126 -0.0469759 -0.0330158 -0.0515535 -0.0308629 -0.0486659 -0.025984 -0.0387439 -0.0329814 -0.0307788 -0.0493736 -0.043086 -0.0509099 -0.0430033 -0.0382355 -0.0584162 -0.0376096 -0.0575464 -0.107591 -0.0523039 -0.0418878 -0.0568429 -0.0379039 -0.0301201 -0.0434614 -0.0427437 -0.0751958 -0.0598946 -0.0638528 -0.0616526 -0.0840313 -0.0591933 -0.0277342 -0.0534182 -0.0634437 -0.0664376 -0.0864219 -0.104741 -0.0715789 -0.0869848 -0.0491299 -0.113334 -0.0777612 -0.0961347 -0.105078 -0.0556109 -0.0824541 -0.10714 -0.10729 -0.0675576 -0.0952585 -0.103466 -0.111174 -0.0518289 -0.0718887 -0.103363 -0.0940655 -0.0833247 -0.10953 -0.0572153 -0.097091 -0.107755 -0.112763 -0.0833279 -0.0536359 -0.0744879 -0.0569076 -0.104035 -0.0729526 -0.0806448 -0.11889 -0.0600747 -0.120702 -0.0820083 -0.113092 -0.0644746 -0.0626989 -0.103242 -0.108024 -0.10879 -0.124314 -0.129931 -0.134219 -0.115338 -0.0414428 -0.117077 -0.0452257 -0.0405893 -0.121059 -0.125751 -0.112904 -0.0433646 -0.0470307 -0.046323 -0.127344 -0.0471955 -0.0508048 -0.0477979 -0.0463298 -0.05941 -0.0516353 -0.0463081 -0.0663122 -0.0549712 -0.0477891 -0.073325 -0.0558418 -0.0835243 -0.0704791 -0.0670703 -0.050428 -0.0818773 -0.070215 -0.0754901 -0.0727995 -0.111853 -0.0591236 -0.0807971 -0.0778584 -0.0825487 -0.0863696 -0.0882323 -0.0814754 -0.0597868 -0.0895299 -0.0866193 -0.116152 -0.0857379 -0.072279 -0.0987016 -0.110898 -0.100367 -0.116155 -0.113664 -0.0944858 -0.118245 -0.102845 -0.104229 -0.12898 -0.0875167 -0.0979302 -0.11975 -0.0895727 -0.0785427 -0.11213 -0.0977936 -0.0786904 -0.0923415 -0.104837 -0.0706291 -0.109016 -0.0828993 -0.0965463 -0.135268 -0.0943452 -0.090053 -0.0953761 -0.142283 -0.119956 -0.125668 -0.152958 -0.128752 -0.153912 -0.107082 -0.156495 -0.132099 -0.135968 -0.160894 -0.136826 -0.138442 -0.107421 -0.137911 -0.0138388 -0.0144742 -0.111715 -0.120067 -0.159185 -0.0156743 -0.126792 -0.138447 -0.104049 -0.0168286 -0.168094 -0.0148071 -0.164253 -0.133871 -0.133767 -0.166249 -0.0182507 -0.137949 -0.0172113 -0.165072 -0.148902 -0.017391 -0.174601 -0.137329 -0.0175194 -0.0176445 -0.172391 -0.129019 -0.151472 -0.0173896 -0.181087 -0.187627 -0.175282 -0.187607 -0.196952 -0.196675
num 1 243 float
 74 7 66 37 36 40 23 64 20 41 9 131 21 61 67 29 63 92 69 10 57 5 121 53 6 116 8 101 82 46 108 59 99 13 86 100 95 118 14 110 123 83 130 112 107 122 73 139 28 103 76 93 125 33 32 11 34 97 70 12 27 38 15 39 16 56 30 79 22 45 25 42 65 58 60 62 68 17 48 44 55 31 72 51 124 18 19 47 80 104 77 26 119 91 88 71 35 105 120 98 126 117 89 84 127 96 102 94 87 113 75 134 81 111 90 106 115 137 78 143 109 128 132 135 114 85 145 152 158 133 160 167 161 156 146 166 151 148 170 155 165 177 224 175 174 144 205 180 169 181 231 157 184 182 193 186 208 196 150 183 187 220 215 179 219 240 225 216 236 210 237 227 217 242 195 221 222 197 164 234 203 153 176 206 149 173 142 163 178 140 171 159 172 136 154 185 141 168 129 188 138 147 189 233 162 201 235 0 43 213 190 194 2 223 230 198 3 200 1 214 226 192 209 4 204 24 218 211 50 229 202 49 52 232 199 191 54 212 238 207 239 228 241
kind 1 243 float
 0 0 0 0 0 0 0 0 0 0 0 0 0 0 0 0 0 0 0 0 0 0 0 0 0 0 0 0 0 0 0 0 0 0 0 0 0 0 0 0 0 0 0 0 0 0 0 0 0 0 0 0 0 0 0 0 0 0 0 0 0 0 0 0 0 0 0 0 0 0 0 0 0 0 0 0 0 0 0 0 0 0 0 0 0 0 0 0 0 0 0 0 0 0 0 0 0 0 0 0 0 0 0 0 0 0 0 0 0 0 0 0 0 0 0 0 0 0 0 0 0 0 0 0 0 0 0 0 0 0 0 0 0 0 0 0 0 0 0 0 0 0 0 0 0 0 0 0 0 0 0 0 0 0 0 0 0 0 0 0 0 0 0 0 0 0 0 0 0 0 0 0 0 0 0 0 0 0 0 0 0 0 0 0 0 0 0 0 0 0 0 0 0 0 0 0 0 0 0 0 0 0 0 0 0 0 0 0 0 0 0 0 0 0 0 0 0 0 0 0 0 0 0 0 0 0 0 0 0 0 0 0 0 0 0 0 0 0 0 0 0 0 0
centroid_x 1 243 float
 0.00718123 0.349537 0.0863101 0.235615 0.120836 0.162626 0.290833 0.327119 0.381584 0.228947 0.423451 0.00380653 0.412194 0.472784 0.133361 0.371182 0.163934 0.131153 0.193355 0.457141 0.382656 0.279758 0.308682 0.305677 0.322087 0.0940866 0.36136 0.375827 0.0301808 0.3507 0.470629 0.261076 0.173705 0.60668 0.0899689 0.0615346 0.435299 0.00844399 0.644257 0.0182063 0.360678 0.174794 0.254027 0.0388268 0.00643397 0.397366 0.481342 0.365109 0.55928 0.230201 0.610031 0.374055 0.443727 0.990294 0.637049 0.490195 0.666171 0.299515 0.30885 0.545754 0.498165 0.788316 0.70813 0.722218 0.74769 0.853983 0.696035 0.231228 0.656402 0.688077 0.744725 0.867351 0.960758 0.753149 0.85668 0.566466 0.989611 0.821903 0.922824 0.968685 0.615359 0.837751 0.960043 0.976345 0.558084 0.90854 0.963766 0.991179 0.564021 0.630561 0.936515 0.917075 0.701317 0.950716 0.599341 0.919581 0.98435 0.940542 0.746841 0.515564 0.616139 0.505344 0.901862 0.732882 0.659869 0.976234 0.57447 0.995439 0.774168 0.885962 0.64895 0.498071 0.922834 0.880196 0.939181 0.994328 0.99431 0.995866 0.989075 0.00236256 0.922144 0.141143 0.0380792 0.919876 0.97379 0.974305 0.0167964 0.235748 0.0112525 0.957268 0.0991092 0.00236907 0.106872 0.0346651 0.402696 0.0275905 0.045581 0.466089 0.011312 0.065424 0.44399 0.0625756 0.019765 0.348619 0.173677 0.299805 0.0124257 0.251173 0.413526 0.297567 0.221241 0.274633 0.105772 0.369818 0.265949 0.431243 0.240675 0.219471 0.360591 0.488577 0.321785 0.533381 0.20544 0.025113 0.260811 0.0113481 0.0322892 0.499185 0.0811198 0.281586 0.248377 0.159677 0.325851 0.283555 0.379966 0.214377 0.391954 0.419602 0.512121 0.151696 0.413929 0.56125 0.568572 0.491083 0.515488 0.714265 0.620996 0.718669 0.845275 0.713889 0.606584 0.672663 0.92234 0.904884 0.918209 0.972611 0.956244 0.985282 0.821365 0.954842 0.985445 0.996377 0.982763 0.553686 0.974398 0.531484 0.523058 0.0469041 0.00909702 0.526277 0.633255 0.950618 0.165238 0.560577 0.60003 0.549612 0.189646 0.989172 0.125497 0.870878 0.622684 0.807557 0.941177 0.226939 0.7943 0.189221 0.847108 0.733016 0.00474924 0.882367 0.809176 0.0321366 0.085996 0.823703 0.767202 0.88153 0.064479 0.941636 0.912162 0.984593 0.894052 0.965962 0.923455
centroid_y 1 243 float
 0.252338 0.0294259 0.250612 0.103211 0.136589 0.154214 0.0846911 0.209591 0.0227292 0.164357 0.00609209 0.479875 0.0400471 0.21629 0.238986 0.103186 0.219544 0.371877 0.236814 0.115126 0.246029 0.00803561 0.464304 0.181512 0.0254171 0.437697 0.00689523 0.396908 0.327486 0.173152 0.424862 0.222442 0.462794 0.0275857 0.311105 0.387393 0.387854 0.442563 0.00701628 0.402373 0.468956 0.305448 0.496974 0.441767 0.403693 0.459784 0.292224 0.506828 0.110893 0.423488 0.239748 0.331237 0.493287 0.0783689 0.0988455 0.0105297 0.127854 0.384196 0.288504 0.0210894 0.0327981 0.158701 0.0198918 0.119473 0.00519881 0.176693 0.0598264 0.308535 0.047558 0.189081 0.0734601 0.147042 0.205779 0.241812 0.242654 0.219688 0.21527 0.0308838 0.178404 0.140008 0.202952 0.0910693 0.240563 0.17743 0.486598 0.0110413 0.0348023 0.153407 0.306716 0.414612 0.245722 0.0913231 0.456691 0.333786 0.340058 0.234692 0.110881 0.387009 0.457085 0.377639 0.47414 0.441038 0.345811 0.28434 0.485263 0.371557 0.399185 0.330964 0.37169 0.429967 0.287196 0.501976 0.277576 0.409179 0.29687 0.395594 0.411693 0.484407 0.256714 0.502681 0.43838 0.554622 0.494352 0.479078 0.442321 0.297588 0.533515 0.553824 0.577069 0.481928 0.58618 0.606686 0.627943 0.573553 0.551498 0.627119 0.539934 0.560365 0.657028 0.600003 0.621673 0.667047 0.897641 0.65738 0.69013 0.532454 0.840601 0.70498 0.667435 0.704007 0.962302 0.617737 0.82331 0.710634 0.771756 0.738213 0.841334 0.787019 0.58651 0.737647 0.788475 0.867914 0.854052 0.720815 0.906833 0.995164 0.952146 0.893392 0.980801 0.851115 0.983751 0.936969 0.879189 0.99461 0.765035 0.905605 0.94568 0.765678 0.632612 0.979656 0.828832 0.582868 0.698431 0.819194 0.54903 0.701838 0.552827 0.592899 0.708321 0.528312 0.642288 0.615701 0.679439 0.507665 0.593544 0.716381 0.532675 0.668134 0.565304 0.732387 0.502282 0.535073 0.742199 0.967257 0.598929 0.7996 0.981146 0.0773046 0.139858 0.844211 0.815308 0.774552 0.00428127 0.912352 0.970765 0.760588 0.00852522 0.782341 0.0419565 0.853599 0.924358 0.750735 0.825043 0.0325322 0.805117 0.0750252 0.898538 0.917145 0.173258 0.949333 0.775041 0.20328 0.180344 0.974832 0.768549 0.784586 0.174877 0.887182 0.973465 0.821301 0.989584 0.96136 0.992173
centroid_z 1 243 float
 0 0 0 0 0 0 0 0 0 0 0 0 0 0 0 0 0 0 0 0 0 0 0 0 0 0 0 0 0 0 0 0 0 0 0 0 0 0 0 0 0 0 0 0 0 0 0 0 0 0 0 0 0 0 0 0 0 0 0 0 0 0 0 0 0 0 0 0 0 0 0 0 0 0 0 0 0 0 0 0 0 0 0 0 0 0 0 0 0 0 0 0 0 0 0 0 0 0 0 0 0 0 0 0 0 0 0 0 0 0 0 0 0 0 0 0 0 0 0 0 0 0 0 0 0 0 0 0 0 0 0 0 0 0 0 0 0 0 0 0 0 0 0 0 0 0 0 0 0 0 0 0 0 0 0 0 0 0 0 0 0 0 0 0 0 0 0 0 0 0 0 0 0 0 0 0 0 0 0 0 0 0 0 0 0 0 0 0 0 0 0 0 0 0 0 0 0 0 0 0 0 0 0 0 0 0 0 0 0 0 0 0 0 0 0 0 0 0 0 0 0 0 0 0 0 0 0 0 0 0 0 0 0 0 0 0 0 0 0 0 0 0 0
